<?xml version="1.0" encoding="UTF-8"?>

<configuration xmlns:xsi="http://www.w3.org/2001/XMLSchema-instance" xsi:noNamespaceSchemaLocation="http://sumo.sf.net/xsd/sumoConfiguration.xsd">
    <input>
        <!--<net-file value="/root/STG/osm.net.xml"/>-->
    </input>
    <processing>
        <time-to-teleport value="200"/>
        <time-to-teleport.highways value="200"/>
	<ignore-route-errors value="true"/>
    </processing>
    <output>
	<fcd-output.geo value="true"/>
    <fcd-output value="/root/Desktop/SEM/Torres_del_Ebre/outputs/fcd.xml"/>
	<vehroute-output.route-length value="true"/>
	<!--<vehroute-output.cost value="true"/>	
	<fcd-output.distance value="true"/>-->
    </output>
    <emissions>	
	<device.emissions.probability value = '1'/>
	</emissions>
    <routing>       
	 <device.rerouting.period value="30"/>     
        <device.rerouting.pre-period value="30"/>
	<device.rerouting.adaptation-interval value="1"/>
	<device.rerouting.threads value="20"/>
	<device.rerouting.with-taz value= "true"/> 
   </routing>
    <report>
        <verbose value="false"/>
        <print-options value="false"/>
        <help value="false" />
        <no-warnings value="true"/>
        <!--<aggregate-warnings value="-1"/>-->
        <log value=""/>
        <no-step-log value="true"/>
    </report>
    <time>
        <begin value="0"/>
        <end value="3600"/>
        <step-length value="1"/>
    </time>
</configuration>
